<fcd-export>
	<timestep time="0.00">
		<vehicle id="veh1" x="244.03" y="226.50" angle="48.62" type="car" speed="13.14" pos="70.19" lane="3" />
		<vehicle id="veh2" x="966.10" y="659.53" angle="112.58" type="car" speed="7.99" pos="51.52" lane="2" />
		<vehicle id="veh3" x="504.87" y="321.57" angle="39.65" type="car" speed="10.66" pos="95.57" lane="1" />
		<vehicle id="veh4" x="831.93" y="374.69" angle="211.08" type="car" speed="6.22" pos="78.94" lane="3" />
		<vehicle id="veh5" x="879.63" y="471.50" angle="217.59" type="car" speed="11.68" pos="69.09" lane="3" />
		<vehicle id="veh6" x="222.40" y="421.13" angle="262.27" type="car" speed="11.36" pos="83.10" lane="3" />
		<vehicle id="veh7" x="602.70" y="629.39" angle="75.64" type="car" speed="12.17" pos="35.96" lane="1" />
		<vehicle id="veh8" x="732.75" y="586.09" angle="148.36" type="car" speed="5.78" pos="8.69" lane="2" />
		<vehicle id="veh9" x="799.93" y="824.18" angle="254.82" type="car" speed="5.77" pos="43.56" lane="1" />
		<vehicle id="veh10" x="598.12" y="546.21" angle="142.54" type="bus" speed="14.08" pos="82.85" lane="2" />
		<vehicle id="veh11" x="955.43" y="523.12" angle="84.44" type="car" speed="13.21" pos="95.53" lane="3" />
		<vehicle id="veh12" x="438.54" y="295.27" angle="148.48" type="car" speed="8.64" pos="64.11" lane="1" />
		<vehicle id="veh13" x="303.56" y="81.01" angle="334.15" type="car" speed="13.93" pos="23.39" lane="1" />
		<vehicle id="veh14" x="439.34" y="681.41" angle="42.39" type="car" speed="8.18" pos="64.57" lane="3" />
		<vehicle id="veh15" x="956.69" y="203.45" angle="132.03" type="car" speed="10.92" pos="2.16" lane="3" />
		<vehicle id="veh16" x="220.75" y="317.73" angle="85.27" type="car" speed="11.89" pos="90.54" lane="3" />
		<vehicle id="veh17" x="630.25" y="469.24" angle="194.16" type="car" speed="7.02" pos="49.92" lane="2" />
		<vehicle id="veh18" x="936.05" y="470.38" angle="64.15" type="car" speed="7.93" pos="59.87" lane="1" />
		<vehicle id="veh19" x="564.95" y="910.32" angle="49.98" type="car" speed="9.69" pos="87.18" lane="3" />
		<vehicle id="veh20" x="666.19" y="544.06" angle="318.86" type="bus" speed="5.44" pos="51.00" lane="1" />
		<vehicle id="veh21" x="780.82" y="733.69" angle="173.56" type="car" speed="9.08" pos="92.27" lane="1" />
		<vehicle id="veh22" x="778.92" y="571.21" angle="225.48" type="car" speed="5.33" pos="55.09" lane="3" />
		<vehicle id="veh23" x="678.73" y="25.88" angle="213.82" type="car" speed="5.46" pos="55.47" lane="3" />
		<vehicle id="veh24" x="794.10" y="541.27" angle="178.36" type="car" speed="9.83" pos="2.28" lane="3" />
		<vehicle id="veh25" x="783.07" y="801.58" angle="211.14" type="car" speed="14.70" pos="15.08" lane="1" />
		<vehicle id="veh26" x="535.44" y="117.55" angle="177.28" type="car" speed="6.42" pos="72.61" lane="1" />
		<vehicle id="veh27" x="785.24" y="850.80" angle="48.27" type="car" speed="9.91" pos="1.51" lane="3" />
		<vehicle id="veh28" x="296.14" y="477.52" angle="80.97" type="car" speed="14.40" pos="43.29" lane="3" />
		<vehicle id="veh29" x="482.28" y="980.14" angle="25.60" type="car" speed="5.24" pos="87.36" lane="2" />
		<vehicle id="veh30" x="179.28" y="754.44" angle="230.77" type="bus" speed="9.89" pos="22.76" lane="3" />
		<vehicle id="veh31" x="207.95" y="5.25" angle="215.32" type="car" speed="9.68" pos="92.43" lane="3" />
		<vehicle id="veh32" x="762.47" y="770.45" angle="356.83" type="car" speed="13.29" pos="53.40" lane="2" />
		<vehicle id="veh33" x="432.68" y="687.53" angle="208.88" type="car" speed="14.10" pos="54.94" lane="1" />
		<vehicle id="veh34" x="602.79" y="224.38" angle="135.90" type="car" speed="8.12" pos="89.26" lane="2" />
		<vehicle id="veh35" x="488.87" y="239.09" angle="311.03" type="car" speed="10.79" pos="50.57" lane="2" />
		<vehicle id="veh36" x="294.87" y="68.91" angle="50.14" type="car" speed="7.35" pos="55.57" lane="1" />
		<vehicle id="veh37" x="572.06" y="442.71" angle="28.27" type="car" speed="7.56" pos="66.02" lane="3" />
		<vehicle id="veh38" x="852.19" y="96.38" angle="324.44" type="car" speed="11.81" pos="10.16" lane="2" />
		<vehicle id="veh39" x="36.90" y="221.34" angle="190.05" type="car" speed="12.53" pos="17.94" lane="3" />
		<vehicle id="veh40" x="240.83" y="913.16" angle="210.32" type="bus" speed="12.94" pos="52.46" lane="2" />
		<vehicle id="veh41" x="893.34" y="773.88" angle="317.49" type="car" speed="6.14" pos="27.19" lane="2" />
		<vehicle id="veh42" x="371.23" y="617.66" angle="310.57" type="car" speed="6.29" pos="72.02" lane="3" />
		<vehicle id="veh43" x="17.68" y="720.40" angle="40.48" type="car" speed="8.44" pos="37.62" lane="3" />
		<vehicle id="veh44" x="144.74" y="5.31" angle="302.33" type="car" speed="11.28" pos="74.80" lane="2" />
		<vehicle id="veh45" x="267.98" y="334.14" angle="111.57" type="car" speed="10.14" pos="32.78" lane="3" />
		<vehicle id="veh46" x="478.14" y="786.69" angle="314.02" type="car" speed="8.18" pos="6.53" lane="2" />
		<vehicle id="veh47" x="442.54" y="111.41" angle="268.44" type="car" speed="11.78" pos="15.55" lane="2" />
		<vehicle id="veh48" x="912.75" y="42.08" angle="77.21" type="car" speed="6.04" pos="69.04" lane="3" />
		<vehicle id="veh49" x="393.62" y="106.51" angle="314.63" type="car" speed="8.07" pos="58.55" lane="3" />
		<vehicle id="veh50" x="58.94" y="909.04" angle="91.58" type="bus" speed="12.00" pos="68.57" lane="1" />
		<vehicle id="veh51" x="799.68" y="688.73" angle="338.69" type="car" speed="12.28" pos="93.41" lane="2" />
		<vehicle id="veh52" x="216.49" y="98.59" angle="2.18" type="car" speed="10.36" pos="52.62" lane="1" />
		<vehicle id="veh53" x="459.17" y="293.21" angle="284.17" type="car" speed="8.84" pos="61.66" lane="2" />
		<vehicle id="veh54" x="976.78" y="701.51" angle="6.76" type="car" speed="7.74" pos="56.87" lane="3" />
		<vehicle id="veh55" x="328.32" y="426.90" angle="201.85" type="car" speed="14.70" pos="20.99" lane="1" />
		<vehicle id="veh56" x="48.48" y="395.95" angle="101.88" type="car" speed="14.70" pos="31.96" lane="1" />
		<vehicle id="veh57" x="827.25" y="107.10" angle="184.23" type="car" speed="10.19" pos="42.25" lane="1" />
		<vehicle id="veh58" x="101.50" y="14.50" angle="72.96" type="car" speed="5.98" pos="23.97" lane="1" />
		<vehicle id="veh59" x="698.67" y="729.38" angle="1.30" type="car" speed="10.76" pos="97.86" lane="2" />
		<vehicle id="veh60" x="161.31" y="708.54" angle="14.96" type="bus" speed="10.25" pos="51.27" lane="2" />
		<vehicle id="veh61" x="846.34" y="35.82" angle="68.80" type="car" speed="11.18" pos="52.80" lane="1" />
		<vehicle id="veh62" x="306.12" y="729.84" angle="235.43" type="car" speed="12.03" pos="67.84" lane="2" />
		<vehicle id="veh63" x="900.46" y="180.44" angle="341.72" type="car" speed="9.56" pos="69.75" lane="3" />
		<vehicle id="veh64" x="666.61" y="139.70" angle="104.40" type="car" speed="10.68" pos="9.56" lane="3" />
		<vehicle id="veh65" x="778.80" y="460.66" angle="304.22" type="car" speed="12.68" pos="35.93" lane="2" />
		<vehicle id="veh66" x="688.60" y="190.36" angle="150.00" type="car" speed="11.77" pos="18.86" lane="3" />
		<vehicle id="veh67" x="198.18" y="276.84" angle="55.82" type="car" speed="12.30" pos="21.24" lane="2" />
		<vehicle id="veh68" x="417.69" y="903.68" angle="287.85" type="car" speed="14.13" pos="27.54" lane="2" />
		<vehicle id="veh69" x="43.87" y="288.24" angle="182.25" type="car" speed="13.88" pos="92.20" lane="3" />
		<vehicle id="veh70" x="212.90" y="179.55" angle="185.19" type="bus" speed="11.57" pos="18.60" lane="1" />
		<vehicle id="veh71" x="591.28" y="512.21" angle="84.08" type="car" speed="6.18" pos="25.29" lane="3" />
		<vehicle id="veh72" x="107.26" y="108.04" angle="199.04" type="car" speed="13.51" pos="62.33" lane="2" />
		<vehicle id="veh73" x="253.30" y="649.35" angle="149.46" type="car" speed="14.91" pos="9.09" lane="3" />
		<vehicle id="veh74" x="526.54" y="826.32" angle="273.64" type="car" speed="8.37" pos="64.06" lane="2" />
		<vehicle id="veh75" x="492.36" y="316.03" angle="297.88" type="car" speed="14.54" pos="64.57" lane="2" />
		<vehicle id="veh76" x="36.60" y="232.82" angle="351.27" type="car" speed="14.43" pos="15.75" lane="2" />
		<vehicle id="veh77" x="188.74" y="855.99" angle="270.20" type="car" speed="7.99" pos="5.05" lane="3" />
		<vehicle id="veh78" x="772.16" y="13.14" angle="278.81" type="car" speed="14.99" pos="17.82" lane="2" />
		<vehicle id="veh79" x="697.69" y="520.00" angle="27.93" type="car" speed="14.95" pos="32.24" lane="1" />
		<vehicle id="veh80" x="428.61" y="367.62" angle="222.55" type="bus" speed="5.31" pos="72.22" lane="3" />
		<vehicle id="veh81" x="7.67" y="888.60" angle="146.18" type="car" speed="6.53" pos="69.51" lane="2" />
		<vehicle id="veh82" x="250.97" y="602.64" angle="255.74" type="car" speed="6.08" pos="6.68" lane="2" />
		<vehicle id="veh83" x="272.14" y="224.04" angle="125.82" type="car" speed="6.59" pos="0.92" lane="1" />
		<vehicle id="veh84" x="981.45" y="687.37" angle="334.72" type="car" speed="11.54" pos="27.58" lane="1" />
		<vehicle id="veh85" x="373.01" y="265.51" angle="249.22" type="car" speed="6.38" pos="59.30" lane="2" />
		<vehicle id="veh86" x="292.61" y="991.13" angle="295.29" type="car" speed="10.11" pos="85.16" lane="2" />
		<vehicle id="veh87" x="529.59" y="414.99" angle="73.30" type="car" speed="8.57" pos="71.65" lane="1" />
		<vehicle id="veh88" x="152.62" y="186.92" angle="56.31" type="car" speed="6.63" pos="7.26" lane="2" />
		<vehicle id="veh89" x="923.55" y="835.99" angle="123.60" type="car" speed="12.12" pos="17.73" lane="3" />
		<vehicle id="veh90" x="962.31" y="371.54" angle="319.04" type="bus" speed="12.51" pos="79.84" lane="1" />
		<vehicle id="veh91" x="367.76" y="825.88" angle="250.30" type="car" speed="11.04" pos="7.70" lane="2" />
		<vehicle id="veh92" x="90.08" y="585.91" angle="125.67" type="car" speed="8.64" pos="34.97" lane="2" />
		<vehicle id="veh93" x="312.05" y="590.38" angle="230.36" type="car" speed="11.79" pos="67.89" lane="3" />
		<vehicle id="veh94" x="144.44" y="577.68" angle="23.93" type="car" speed="5.55" pos="28.42" lane="3" />
		<vehicle id="veh95" x="174.85" y="983.06" angle="29.86" type="car" speed="9.41" pos="52.30" lane="2" />
		<vehicle id="veh96" x="490.90" y="201.36" angle="190.55" type="car" speed="11.45" pos="45.74" lane="1" />
		<vehicle id="veh97" x="231.23" y="841.79" angle="15.67" type="car" speed="5.58" pos="32.99" lane="1" />
		<vehicle id="veh98" x="933.21" y="338.76" angle="9.52" type="car" speed="7.02" pos="12.03" lane="3" />
		<vehicle id="veh99" x="795.19" y="897.47" angle="268.89" type="car" speed="12.75" pos="14.30" lane="2" />
		<vehicle id="veh100" x="505.80" y="940.54" angle="312.44" type="bus" speed="14.36" pos="26.47" lane="2" />
	</timestep>
	<timestep time="1.00">
		<vehicle id="veh1" x="249.72380800543698" y="223.00672783808335" angle="328.47" type="car" speed="6.68" pos="14.83" lane="3" />
		<vehicle id="veh2" x="976.2615545448417" y="664.4729555159041" angle="25.94" type="car" speed="11.30" pos="93.45" lane="1" />
		<vehicle id="veh3" x="502.1064946712239" y="317.07095140081526" angle="238.44" type="car" speed="5.28" pos="23.53" lane="1" />
		<vehicle id="veh4" x="826.7682132466368" y="382.4620561959372" angle="123.59" type="car" speed="9.33" pos="33.23" lane="3" />
		<vehicle id="veh5" x="870.2900312719405" y="463.7760512586585" angle="219.59" type="car" speed="12.12" pos="60.16" lane="3" />
		<vehicle id="veh6" x="228.78517423411452" y="427.5151742341145" angle="45.00" type="car" speed="9.03" pos="37.62" lane="2" />
		<vehicle id="veh7" x="598.3077875294251" y="631.8618555000902" angle="150.63" type="car" speed="5.04" pos="21.13" lane="3" />
		<vehicle id="veh8" x="722.1972007379284" y="584.5128735832471" angle="188.50" type="car" speed="10.67" pos="61.91" lane="1" />
		<vehicle id="veh9" x="813.341881300485" y="825.7199480451288" angle="6.55" type="car" speed="13.50" pos="3.70" lane="3" />
		<vehicle id="veh10" x="596.9979008562249" y="551.369388869967" angle="102.27" type="bus" speed="5.28" pos="71.52" lane="3" />
		<vehicle id="veh11" x="965.278933807868" y="515.1814231219801" angle="321.13" type="car" speed="12.65" pos="36.70" lane="1" />
		<vehicle id="veh12" x="435.27511887897043" y="302.15512536309575" angle="115.37" type="car" speed="7.62" pos="19.33" lane="2" />
		<vehicle id="veh13" x="303.94006133697" y="73.65981950016597" angle="272.96" type="car" speed="7.36" pos="2.09" lane="1" />
		<vehicle id="veh14" x="444.2158990257877" y="684.7673812250506" angle="34.55" type="car" speed="5.92" pos="9.47" lane="1" />
		<vehicle id="veh15" x="949.8928903687291" y="207.21459833986097" angle="151.02" type="car" speed="7.77" pos="65.37" lane="3" />
		<vehicle id="veh16" x="224.46386280087282" y="331.75666471746916" angle="75.17" type="car" speed="14.51" pos="76.74" lane="3" />
		<vehicle id="veh17" x="637.1831173839978" y="464.6406214180927" angle="326.44" type="car" speed="8.32" pos="31.90" lane="1" />
		<vehicle id="veh18" x="938.5712052707933" y="463.90342498055304" angle="291.27" type="car" speed="6.95" pos="95.83" lane="2" />
		<vehicle id="veh19" x="556.5451190960985" y="905.8491637257409" angle="208.01" type="car" speed="9.52" pos="59.98" lane="2" />
		<vehicle id="veh20" x="656.5254522361097" y="538.7028536962779" angle="209.00" type="bus" speed="11.05" pos="17.21" lane="2" />
		<vehicle id="veh21" x="768.7325839127329" y="739.8355652574257" angle="153.05" type="car" speed="13.56" pos="88.27" lane="2" />
		<vehicle id="veh22" x="782.733741172892" y="576.3246630647765" angle="53.29" type="car" speed="6.38" pos="33.33" lane="2" />
		<vehicle id="veh23" x="666.1539509148471" y="22.54787013941161" angle="194.84" type="car" speed="13.01" pos="72.25" lane="1" />
		<vehicle id="veh24" x="793.7370491665524" y="533.3382998863736" angle="267.38" type="car" speed="7.94" pos="40.95" lane="1" />
		<vehicle id="veh25" x="784.2681314502381" y="806.9888890752122" angle="77.51" type="car" speed="5.54" pos="62.24" lane="2" />
		<vehicle id="veh26" x="527.2384785761534" y="113.01878092185073" angle="208.92" type="car" speed="9.37" pos="63.45" lane="1" />
		<vehicle id="veh27" x="773.3911193586853" y="858.9831551096063" angle="145.37" type="car" speed="14.40" pos="38.40" lane="3" />
		<vehicle id="veh28" x="298.82181708631043" y="481.9049124410384" angle="58.55" type="car" speed="5.14" pos="3.83" lane="2" />
		<vehicle id="veh29" x="478.207640093372" y="988.3114616067683" angle="116.49" type="car" speed="9.13" pos="68.37" lane="2" />
		<vehicle id="veh30" x="179.06161515108417" y="768.9883610093291" angle="90.86" type="bus" speed="14.55" pos="18.15" lane="3" />
		<vehicle id="veh31" x="196.137596577807" y="6.771586471865229" angle="172.66" type="car" speed="11.91" pos="22.82" lane="2" />
		<vehicle id="veh32" x="753.7394642142767" y="774.8352759199627" angle="153.33" type="car" speed="9.77" pos="5.64" lane="1" />
		<vehicle id="veh33" x="426.7507115895523" y="691.0589572037261" angle="149.24" type="car" speed="6.90" pos="79.95" lane="2" />
		<vehicle id="veh34" x="601.1966862841999" y="229.81110959225126" angle="106.35" type="car" speed="5.66" pos="90.71" lane="3" />
		<vehicle id="veh35" x="486.185045095239" y="247.77441806682518" angle="107.18" type="car" speed="9.09" pos="50.37" lane="1" />
		<vehicle id="veh36" x="300.75898333240843" y="64.78495753832576" angle="324.99" type="car" speed="7.19" pos="2.52" lane="2" />
		<vehicle id="veh37" x="580.6698171945278" y="436.73493114041247" angle="325.24" type="car" speed="10.48" pos="68.12" lane="3" />
		<vehicle id="veh38" x="843.7570783831098" y="107.35412561452559" angle="127.54" type="car" speed="13.84" pos="34.91" lane="2" />
		<vehicle id="veh39" x="45.3100461418059" y="223.6817992853137" angle="15.56" type="car" speed="8.73" pos="48.67" lane="3" />
		<vehicle id="veh40" x="245.96677020076277" y="911.0322801160501" angle="337.50" type="bus" speed="5.56" pos="26.57" lane="2" />
		<vehicle id="veh41" x="891.5927794704115" y="786.7519586862678" angle="97.73" type="car" speed="12.99" pos="20.03" lane="3" />
		<vehicle id="veh42" x="377.5661289255912" y="624.6306434594151" angle="47.73" type="car" speed="9.42" pos="44.69" lane="1" />
		<vehicle id="veh43" x="20.600970422250544" y="729.1450747162238" angle="71.53" type="car" speed="9.22" pos="61.72" lane="1" />
		<vehicle id="veh44" x="151.12937360019984" y="2.377969134359378" angle="335.35" type="car" speed="7.03" pos="52.61" lane="2" />
		<vehicle id="veh45" x="261.88483705996487" y="337.37403598223983" angle="152.05" type="car" speed="6.90" pos="43.86" lane="3" />
		<vehicle id="veh46" x="482.6696314709006" y="794.385930011235" angle="59.52" type="car" speed="8.93" pos="94.90" lane="2" />
		<vehicle id="veh47" x="441.476474564926" y="97.65104242142775" angle="265.58" type="car" speed="13.80" pos="98.70" lane="1" />
		<vehicle id="veh48" x="909.7332023358321" y="51.41461471371321" angle="107.91" type="car" speed="9.81" pos="1.81" lane="3" />
		<vehicle id="veh49" x="399.4690966162827" y="105.04406385766964" angle="345.93" type="car" speed="6.03" pos="16.76" lane="2" />
		<vehicle id="veh50" x="60.23693443525025" y="902.8749403027495" angle="281.88" type="bus" speed="6.30" pos="33.05" lane="2" />
		<vehicle id="veh51" x="805.4667406056716" y="677.9783613731362" angle="298.29" type="car" speed="12.21" pos="78.23" lane="1" />
		<vehicle id="veh52" x="207.60031939322596" y="102.44612223737074" angle="156.55" type="car" speed="9.69" pos="77.63" lane="2" />
		<vehicle id="veh53" x="466.54277388310464" y="301.99652976257465" angle="50.00" type="car" speed="11.47" pos="1.16" lane="2" />
		<vehicle id="veh54" x="968.8636276757094" y="698.9500294487619" angle="197.92" type="car" speed="8.32" pos="69.86" lane="2" />
		<vehicle id="veh55" x="340.1818011906564" y="423.53450263507136" angle="344.16" type="car" speed="12.33" pos="37.51" lane="3" />
		<vehicle id="veh56" x="55.94700512796774" y="408.1925256552275" angle="58.62" type="car" speed="14.34" pos="36.20" lane="1" />
		<vehicle id="veh57" x="836.563917528069" y="110.30522078495831" angle="18.99" type="car" speed="9.85" pos="88.22" lane="3" />
		<vehicle id="veh58" x="97.56224576831451" y="0.5657080692687142" angle="254.22" type="car" speed="14.48" pos="95.23" lane="3" />
		<vehicle id="veh59" x="693.8896692458082" y="716.5944246167594" angle="249.50" type="car" speed="13.65" pos="58.27" lane="2" />
		<vehicle id="veh60" x="160.04744432560886" y="722.2017844064771" angle="95.28" type="bus" speed="13.72" pos="11.20" lane="1" />
		<vehicle id="veh61" x="834.5971786087017" y="33.447965899893696" angle="191.42" type="car" speed="11.98" pos="98.04" lane="3" />
		<vehicle id="veh62" x="315.70362258551467" y="721.0858822181551" angle="317.59" type="car" speed="12.98" pos="27.11" lane="1" />
		<vehicle id="veh63" x="897.5555217213854" y="176.16297931626983" angle="235.82" type="car" speed="5.17" pos="82.71" lane="3" />
		<vehicle id="veh64" x="671.5856558404379" y="142.48080005709076" angle="29.20" type="car" speed="5.70" pos="74.07" lane="2" />
		<vehicle id="veh65" x="785.4667344759616" y="461.4207571406334" angle="6.51" type="car" speed="6.71" pos="88.30" lane="3" />
		<vehicle id="veh66" x="699.3328636089678" y="191.36699491125503" angle="5.36" type="car" speed="10.78" pos="95.55" lane="2" />
		<vehicle id="veh67" x="193.7400830209355" y="270.1851418332909" angle="236.29" type="car" speed="8.00" pos="7.30" lane="3" />
		<vehicle id="veh68" x="412.6892771107343" y="917.5245357663149" angle="109.86" type="car" speed="14.72" pos="53.45" lane="1" />
		<vehicle id="veh69" x="52.16661436431759" y="289.26751646692355" angle="7.06" type="car" speed="8.36" pos="71.53" lane="3" />
		<vehicle id="veh70" x="202.15497348658067" y="180.98178393129533" angle="172.41" type="bus" speed="10.84" pos="30.79" lane="3" />
		<vehicle id="veh71" x="604.2220321328874" y="511.75579270006995" angle="357.99" type="car" speed="12.95" pos="62.42" lane="3" />
		<vehicle id="veh72" x="101.47072361308464" y="103.10073093303228" angle="220.47" type="car" speed="7.61" pos="28.58" lane="3" />
		<vehicle id="veh73" x="246.04748263938274" y="642.9086498361023" angle="221.61" type="car" speed="9.70" pos="71.44" lane="2" />
		<vehicle id="veh74" x="520.4196973968774" y="834.2788627357313" angle="127.56" type="car" speed="10.04" pos="59.29" lane="3" />
		<vehicle id="veh75" x="490.2125187998497" y="327.4498390748294" angle="100.65" type="car" speed="11.62" pos="45.51" lane="1" />
		<vehicle id="veh76" x="35.10928571537001" y="218.93982093337408" angle="263.87" type="car" speed="13.96" pos="78.33" lane="3" />
		<vehicle id="veh77" x="198.01971508345278" y="854.5550825912482" angle="351.21" type="car" speed="9.39" pos="47.85" lane="3" />
		<vehicle id="veh78" x="778.5723481648894" y="17.10653387887193" angle="31.74" type="car" speed="7.54" pos="78.53" lane="3" />
		<vehicle id="veh79" x="698.4691479817825" y="509.9200680348286" angle="274.42" type="car" speed="10.11" pos="43.06" lane="3" />
		<vehicle id="veh80" x="433.7160034472385" y="369.04081976224586" angle="15.55" type="bus" speed="5.30" pos="12.15" lane="1" />
		<vehicle id="veh81" x="4.347965726750264" y="893.6323938923096" angle="123.43" type="car" speed="6.03" pos="62.19" lane="1" />
		<vehicle id="veh82" x="244.9267813559015" y="605.3179858886149" angle="156.10" type="car" speed="6.61" pos="24.18" lane="1" />
		<vehicle id="veh83" x="281.8298883302373" y="216.46398098289535" angle="321.98" type="car" speed="12.30" pos="78.66" lane="1" />
		<vehicle id="veh84" x="987.764143267329" y="690.8714275373974" angle="29.01" type="car" speed="7.22" pos="97.01" lane="3" />
		<vehicle id="veh85" x="381.63975379294743" y="255.03754806775848" angle="309.49" type="car" speed="13.57" pos="45.72" lane="1" />
		<vehicle id="veh86" x="295.1018173086937" y="1000.3077419063784" angle="74.81" type="car" speed="9.51" pos="77.72" lane="2" />
		<vehicle id="veh87" x="516.3436557765178" y="415.93486227198525" angle="175.92" type="car" speed="13.28" pos="59.86" lane="3" />
		<vehicle id="veh88" x="148.64199605249667" y="181.05113430093616" angle="235.87" type="car" speed="7.09" pos="37.69" lane="3" />
		<vehicle id="veh89" x="913.8202723937177" y="837.9235978660384" angle="168.76" type="car" speed="9.92" pos="39.84" lane="2" />
		<vehicle id="veh90" x="969.1261341212644" y="382.14907232706685" angle="57.28" type="bus" speed="12.61" pos="23.68" lane="3" />
		<vehicle id="veh91" x="367.15905730268895" y="813.4144768310933" angle="267.24" type="car" speed="12.48" pos="27.85" lane="3" />
		<vehicle id="veh92" x="85.72483245603901" y="588.8057582191939" angle="146.38" type="car" speed="5.23" pos="6.90" lane="3" />
		<vehicle id="veh93" x="302.8020597685556" y="579.4597572611397" angle="229.74" type="car" speed="14.31" pos="84.18" lane="3" />
		<vehicle id="veh94" x="150.35315521086534" y="564.1453224843657" angle="293.60" type="car" speed="14.77" pos="55.79" lane="1" />
		<vehicle id="veh95" x="173.30582781128925" y="990.7668237459807" angle="101.33" type="car" speed="7.86" pos="94.83" lane="2" />
		<vehicle id="veh96" x="488.26560329443345" y="193.39432024258443" angle="251.70" type="car" speed="8.39" pos="65.84" lane="3" />
		<vehicle id="veh97" x="237.39701212377565" y="839.4670575846129" angle="339.36" type="car" speed="6.59" pos="58.06" lane="1" />
		<vehicle id="veh98" x="926.4356432464219" y="338.2993585176615" angle="183.89" type="car" speed="6.79" pos="10.53" lane="2" />
		<vehicle id="veh99" x="786.2645326388241" y="905.8018744820469" angle="136.97" type="car" speed="12.21" pos="57.16" lane="3" />
		<vehicle id="veh100" x="495.6068853632851" y="935.3463486829795" angle="207.00" type="bus" speed="11.44" pos="0.61" lane="1" />
	</timestep>
	<timestep time="2.00">
		<vehicle id="veh1" x="246.15839697930576" y="218.72738861166744" angle="230.20" type="car" speed="5.57" pos="97.73" lane="1" />
		<vehicle id="veh2" x="974.4045079905651" y="670.4721036300324" angle="107.20" type="car" speed="6.28" pos="76.64" lane="1" />
		<vehicle id="veh3" x="491.64732751956154" y="320.3126056842926" angle="162.78" type="car" speed="10.95" pos="12.32" lane="2" />
		<vehicle id="veh4" x="827.244215022735" y="395.44333203112194" angle="87.90" type="car" speed="12.99" pos="41.28" lane="2" />
		<vehicle id="veh5" x="874.9329202629948" y="468.7306129765854" angle="46.86" type="car" speed="6.79" pos="96.65" lane="1" />
		<vehicle id="veh6" x="232.86781134106752" y="424.44203670824123" angle="323.03" type="car" speed="5.11" pos="50.27" lane="2" />
		<vehicle id="veh7" x="602.8767497826291" y="635.450822472465" angle="38.15" type="car" speed="5.81" pos="23.98" lane="1" />
		<vehicle id="veh8" x="729.4000536514948" y="587.1487434407188" angle="20.10" type="car" speed="7.67" pos="29.75" lane="1" />
		<vehicle id="veh9" x="826.3145418776663" y="824.2120761841121" angle="353.37" type="car" speed="13.06" pos="78.76" lane="3" />
		<vehicle id="veh10" x="592.849909618686" y="545.4476434606049" angle="234.99" type="bus" speed="7.23" pos="62.89" lane="2" />
		<vehicle id="veh11" x="953.00735243115" y="523.790046154416" angle="144.95" type="car" speed="14.99" pos="18.04" lane="3" />
		<vehicle id="veh12" x="426.76428739595195" y="307.51883186771187" angle="147.78" type="car" speed="10.06" pos="68.83" lane="1" />
		<vehicle id="veh13" x="298.39682041119187" y="64.03149773369088" angle="240.07" type="car" speed="11.11" pos="33.12" lane="2" />
		<vehicle id="veh14" x="439.44777232839976" y="682.3190005770188" angle="207.18" type="car" speed="5.36" pos="70.54" lane="3" />
		<vehicle id="veh15" x="958.5607784991594" y="201.95272459010732" angle="328.74" type="car" speed="10.14" pos="24.03" lane="2" />
		<vehicle id="veh16" x="223.1624481342447" y="325.5108085019063" angle="258.23" type="car" speed="6.38" pos="91.99" lane="2" />
		<vehicle id="veh17" x="641.8974701882521" y="469.5549858365114" angle="46.19" type="car" speed="6.81" pos="16.22" lane="1" />
		<vehicle id="veh18" x="938.0459271215342" y="457.1538336695246" angle="265.55" type="car" speed="6.77" pos="88.41" lane="1" />
		<vehicle id="veh19" x="561.7729164816423" y="908.9729810212468" angle="30.86" type="car" speed="6.09" pos="32.54" lane="3" />
		<vehicle id="veh20" x="659.7699532079735" y="543.7142520483923" angle="57.08" type="bus" speed="5.97" pos="35.95" lane="2" />
		<vehicle id="veh21" x="780.9092151763685" y="734.8440473450617" angle="337.71" type="car" speed="13.16" pos="83.06" lane="3" />
		<vehicle id="veh22" x="790.3628261625088" y="566.5493338006952" angle="307.97" type="car" speed="12.40" pos="33.03" lane="3" />
		<vehicle id="veh23" x="667.5388325642161" y="34.33680574943344" angle="83.30" type="car" speed="11.87" pos="91.58" lane="1" />
		<vehicle id="veh24" x="784.9994447535528" y="526.3155960536658" angle="218.79" type="car" speed="11.21" pos="73.23" lane="2" />
		<vehicle id="veh25" x="794.054007481798" y="815.5467293573712" angle="41.17" type="car" speed="13.00" pos="62.57" lane="3" />
		<vehicle id="veh26" x="538.0712115598049" y="111.35339925240997" angle="351.26" type="car" speed="10.96" pos="66.45" lane="1" />
		<vehicle id="veh27" x="762.1413810290351" y="866.2081317541637" angle="147.29" type="car" speed="13.37" pos="94.53" lane="2" />
		<vehicle id="veh28" x="287.0246394306745" y="472.8034510550101" angle="217.65" type="car" speed="14.90" pos="1.25" lane="1" />
		<vehicle id="veh29" x="483.38583370015397" y="985.5046108856428" angle="331.54" type="car" speed="5.89" pos="45.37" lane="2" />
		<vehicle id="veh30" x="172.5231643092034" y="760.4302326749146" angle="232.62" type="bus" speed="10.77" pos="97.89" lane="2" />
		<vehicle id="veh31" x="198.88253827641248" y="-6.109181947420044" angle="282.03" type="car" speed="13.17" pos="12.15" lane="1" />
		<vehicle id="veh32" x="748.1305350555103" y="777.5238282612684" angle="154.39" type="car" speed="6.22" pos="65.13" lane="3" />
		<vehicle id="veh33" x="436.9382341725719" y="684.5487741325318" angle="327.42" type="car" speed="12.09" pos="88.81" lane="2" />
		<vehicle id="veh34" x="602.9417399377153" y="218.61630330780164" angle="278.86" type="car" speed="11.33" pos="20.29" lane="1" />
		<vehicle id="veh35" x="481.3883255734349" y="261.0759624068311" angle="109.83" type="car" speed="14.14" pos="61.03" lane="2" />
		<vehicle id="veh36" x="306.87109263244656" y="52.423476239371844" angle="296.31" type="car" speed="13.79" pos="62.64" lane="1" />
		<vehicle id="veh37" x="583.9317156648221" y="446.9990881135638" angle="72.37" type="car" speed="10.77" pos="33.71" lane="3" />
		<vehicle id="veh38" x="836.8907472253784" y="112.80998452329207" angle="141.53" type="car" speed="8.77" pos="70.17" lane="1" />
		<vehicle id="veh39" x="47.0548325491655" y="217.11980108410296" angle="284.89" type="car" speed="6.79" pos="64.19" lane="3" />
		<vehicle id="veh40" x="234.15772070423864" y="915.8394466399644" angle="157.85" type="bus" speed="12.75" pos="30.45" lane="3" />
		<vehicle id="veh41" x="899.8902135269875" y="790.7720318294796" angle="25.85" type="car" speed="9.22" pos="79.58" lane="3" />
		<vehicle id="veh42" x="384.3818456608519" y="626.8241806450326" angle="17.84" type="car" speed="7.16" pos="39.22" lane="3" />
		<vehicle id="veh43" x="24.62693685611022" y="718.9297923278884" angle="291.51" type="car" speed="10.98" pos="40.25" lane="2" />
		<vehicle id="veh44" x="161.62410079715357" y="-4.684834916548407" angle="326.06" type="car" speed="12.65" pos="27.99" lane="1" />
		<vehicle id="veh45" x="257.3653189893123" y="340.69759678490993" angle="143.67" type="car" speed="5.61" pos="78.42" lane="2" />
		<vehicle id="veh46" x="479.42070840938146" y="788.767691947542" angle="239.96" type="car" speed="6.49" pos="94.04" lane="3" />
		<vehicle id="veh47" x="446.3193215622459" y="111.69975883825919" angle="70.98" type="car" speed="14.86" pos="38.99" lane="1" />
		<vehicle id="veh48" x="908.561337001833" y="42.44080662355599" angle="262.56" type="car" speed="9.05" pos="60.48" lane="1" />