<?xml version="1.0" ?>
<fcd-export>
	<timestep time="0.00">
		<vehicle id="veh1" x="244.03" y="226.50" angle="48.62" type="car" speed="13.14" pos="70.19" lane="3"/>
		<vehicle id="veh2" x="966.10" y="659.53" angle="112.58" type="car" speed="7.99" pos="51.52" lane="2"/>
		<vehicle id="veh3" x="504.87" y="321.57" angle="39.65" type="car" speed="10.66" pos="95.57" lane="1"/>
		<vehicle id="veh4" x="831.93" y="374.69" angle="211.08" type="car" speed="6.22" pos="78.94" lane="3"/>
		<vehicle id="veh5" x="879.63" y="471.50" angle="217.59" type="car" speed="11.68" pos="69.09" lane="3"/>
		<vehicle id="veh6" x="222.40" y="421.13" angle="262.27" type="car" speed="11.36" pos="83.10" lane="3"/>
		<vehicle id="veh7" x="602.70" y="629.39" angle="75.64" type="car" speed="12.17" pos="35.96" lane="1"/>
		<vehicle id="veh8" x="732.75" y="586.09" angle="148.36" type="car" speed="5.78" pos="8.69" lane="2"/>
		<vehicle id="veh9" x="799.93" y="824.18" angle="254.82" type="car" speed="5.77" pos="43.56" lane="1"/>
		<vehicle id="veh10" x="598.12" y="546.21" angle="142.54" type="bus" speed="14.08" pos="82.85" lane="2"/>
		<vehicle id="veh11" x="955.43" y="523.12" angle="84.44" type="car" speed="13.21" pos="95.53" lane="3"/>
		<vehicle id="veh12" x="438.54" y="295.27" angle="148.48" type="car" speed="8.64" pos="64.11" lane="1"/>
		<vehicle id="veh13" x="303.56" y="81.01" angle="334.15" type="car" speed="13.93" pos="23.39" lane="1"/>
		<vehicle id="veh14" x="439.34" y="681.41" angle="42.39" type="car" speed="8.18" pos="64.57" lane="3"/>
		<vehicle id="veh15" x="956.69" y="203.45" angle="132.03" type="car" speed="10.92" pos="2.16" lane="3"/>
		<vehicle id="veh16" x="220.75" y="317.73" angle="85.27" type="car" speed="11.89" pos="90.54" lane="3"/>
		<vehicle id="veh17" x="630.25" y="469.24" angle="194.16" type="car" speed="7.02" pos="49.92" lane="2"/>
		<vehicle id="veh18" x="936.05" y="470.38" angle="64.15" type="car" speed="7.93" pos="59.87" lane="1"/>
		<vehicle id="veh19" x="564.95" y="910.32" angle="49.98" type="car" speed="9.69" pos="87.18" lane="3"/>
		<vehicle id="veh20" x="666.19" y="544.06" angle="318.86" type="bus" speed="5.44" pos="51.00" lane="1"/>
		<vehicle id="veh21" x="780.82" y="733.69" angle="173.56" type="car" speed="9.08" pos="92.27" lane="1"/>
		<vehicle id="veh22" x="778.92" y="571.21" angle="225.48" type="car" speed="5.33" pos="55.09" lane="3"/>
		<vehicle id="veh23" x="678.73" y="25.88" angle="213.82" type="car" speed="5.46" pos="55.47" lane="3"/>
		<vehicle id="veh24" x="794.10" y="541.27" angle="178.36" type="car" speed="9.83" pos="2.28" lane="3"/>
		<vehicle id="veh25" x="783.07" y="801.58" angle="211.14" type="car" speed="14.70" pos="15.08" lane="1"/>
		<vehicle id="veh26" x="535.44" y="117.55" angle="177.28" type="car" speed="6.42" pos="72.61" lane="1"/>
		<vehicle id="veh27" x="785.24" y="850.80" angle="48.27" type="car" speed="9.91" pos="1.51" lane="3"/>
		<vehicle id="veh28" x="296.14" y="477.52" angle="80.97" type="car" speed="14.40" pos="43.29" lane="3"/>
		<vehicle id="veh29" x="482.28" y="980.14" angle="25.60" type="car" speed="5.24" pos="87.36" lane="2"/>
		<vehicle id="veh30" x="179.28" y="754.44" angle="230.77" type="bus" speed="9.89" pos="22.76" lane="3"/>
		<vehicle id="veh31" x="207.95" y="5.25" angle="215.32" type="car" speed="9.68" pos="92.43" lane="3"/>
		<vehicle id="veh32" x="762.47" y="770.45" angle="356.83" type="car" speed="13.29" pos="53.40" lane="2"/>
		<vehicle id="veh33" x="432.68" y="687.53" angle="208.88" type="car" speed="14.10" pos="54.94" lane="1"/>
		<vehicle id="veh34" x="602.79" y="224.38" angle="135.90" type="car" speed="8.12" pos="89.26" lane="2"/>
		<vehicle id="veh35" x="488.87" y="239.09" angle="311.03" type="car" speed="10.79" pos="50.57" lane="2"/>
		<vehicle id="veh36" x="294.87" y="68.91" angle="50.14" type="car" speed="7.35" pos="55.57" lane="1"/>
		<vehicle id="veh37" x="572.06" y="442.71" angle="28.27" type="car" speed="7.56" pos="66.02" lane="3"/>
		<vehicle id="veh38" x="852.19" y="96.38" angle="324.44" type="car" speed="11.81" pos="10.16" lane="2"/>
		<vehicle id="veh39" x="36.90" y="221.34" angle="190.05" type="car" speed="12.53" pos="17.94" lane="3"/>
		<vehicle id="veh40" x="240.83" y="913.16" angle="210.32" type="bus" speed="12.94" pos="52.46" lane="2"/>
		<vehicle id="veh41" x="893.34" y="773.88" angle="317.49" type="car" speed="6.14" pos="27.19" lane="2"/>
		<vehicle id="veh42" x="371.23" y="617.66" angle="310.57" type="car" speed="6.29" pos="72.02" lane="3"/>
		<vehicle id="veh43" x="17.68" y="720.40" angle="40.48" type="car" speed="8.44" pos="37.62" lane="3"/>
		<vehicle id="veh44" x="144.74" y="5.31" angle="302.33" type="car" speed="11.28" pos="74.80" lane="2"/>
		<vehicle id="veh45" x="267.98" y="334.14" angle="111.57" type="car" speed="10.14" pos="32.78" lane="3"/>
		<vehicle id="veh46" x="478.14" y="786.69" angle="314.02" type="car" speed="8.18" pos="6.53" lane="2"/>
		<vehicle id="veh47" x="442.54" y="111.41" angle="268.44" type="car" speed="11.78" pos="15.55" lane="2"/>
		<vehicle id="veh48" x="912.75" y="42.08" angle="77.21" type="car" speed="6.04" pos="69.04" lane="3"/>
		<vehicle id="veh49" x="393.62" y="106.51" angle="314.63" type="car" speed="8.07" pos="58.55" lane="3"/>
		<vehicle id="veh50" x="58.94" y="909.04" angle="91.58" type="bus" speed="12.00" pos="68.57" lane="1"/>
		<vehicle id="veh51" x="799.68" y="688.73" angle="338.69" type="car" speed="12.28" pos="93.41" lane="2"/>
		<vehicle id="veh52" x="216.49" y="98.59" angle="2.18" type="car" speed="10.36" pos="52.62" lane="1"/>
		<vehicle id="veh53" x="459.17" y="293.21" angle="284.17" type="car" speed="8.84" pos="61.66" lane="2"/>
		<vehicle id="veh54" x="976.78" y="701.51" angle="6.76" type="car" speed="7.74" pos="56.87" lane="3"/>
		<vehicle id="veh55" x="328.32" y="426.90" angle="201.85" type="car" speed="14.70" pos="20.99" lane="1"/>
		<vehicle id="veh56" x="48.48" y="395.95" angle="101.88" type="car" speed="14.70" pos="31.96" lane="1"/>
		<vehicle id="veh57" x="827.25" y="107.10" angle="184.23" type="car" speed="10.19" pos="42.25" lane="1"/>
		<vehicle id="veh58" x="101.50" y="14.50" angle="72.96" type="car" speed="5.98" pos="23.97" lane="1"/>
		<vehicle id="veh59" x="698.67" y="729.38" angle="1.30" type="car" speed="10.76" pos="97.86" lane="2"/>
		<vehicle id="veh60" x="161.31" y="708.54" angle="14.96" type="bus" speed="10.25" pos="51.27" lane="2"/>
		<vehicle id="veh61" x="846.34" y="35.82" angle="68.80" type="car" speed="11.18" pos="52.80" lane="1"/>
		<vehicle id="veh62" x="306.12" y="729.84" angle="235.43" type="car" speed="12.03" pos="67.84" lane="2"/>
		<vehicle id="veh63" x="900.46" y="180.44" angle="341.72" type="car" speed="9.56" pos="69.75" lane="3"/>
		<vehicle id="veh64" x="666.61" y="139.70" angle="104.40" type="car" speed="10.68" pos="9.56" lane="3"/>
		<vehicle id="veh65" x="778.80" y="460.66" angle="304.22" type="car" speed="12.68" pos="35.93" lane="2"/>
		<vehicle id="veh66" x="688.60" y="190.36" angle="150.00" type="car" speed="11.77" pos="18.86" lane="3"/>
		<vehicle id="veh67" x="198.18" y="276.84" angle="55.82" type="car" speed="12.30" pos="21.24" lane="2"/>
		<vehicle id="veh68" x="417.69" y="903.68" angle="287.85" type="car" speed="14.13" pos="27.54" lane="2"/>
		<vehicle id="veh69" x="43.87" y="288.24" angle="182.25" type="car" speed="13.88" pos="92.20" lane="3"/>
		<vehicle id="veh70" x="212.90" y="179.55" angle="185.19" type="bus" speed="11.57" pos="18.60" lane="1"/>
		<vehicle id="veh71" x="591.28" y="512.21" angle="84.08" type="car" speed="6.18" pos="25.29" lane="3"/>
		<vehicle id="veh72" x="107.26" y="108.04" angle="199.04" type="car" speed="13.51" pos="62.33" lane="2"/>
		<vehicle id="veh73" x="253.30" y="649.35" angle="149.46" type="car" speed="14.91" pos="9.09" lane="3"/>
		<vehicle id="veh74" x="526.54" y="826.32" angle="273.64" type="car" speed="8.37" pos="64.06" lane="2"/>
		<vehicle id="veh75" x="492.36" y="316.03" angle="297.88" type="car" speed="14.54" pos="64.57" lane="2"/>
		<vehicle id="veh76" x="36.60" y="232.82" angle="351.27" type="car" speed="14.43" pos="15.75" lane="2"/>
		<vehicle id="veh77" x="188.74" y="855.99" angle="270.20" type="car" speed="7.99" pos="5.05" lane="3"/>
		<vehicle id="veh78" x="772.16" y="13.14" angle="278.81" type="car" speed="14.99" pos="17.82" lane="2"/>
		<vehicle id="veh79" x="697.69" y="520.00" angle="27.93" type="car" speed="14.95" pos="32.24" lane="1"/>
		<vehicle id="veh80" x="428.61" y="367.62" angle="222.55" type="bus" speed="5.31" pos="72.22" lane="3"/>
		<vehicle id="veh81" x="7.67" y="888.60" angle="146.18" type="car" speed="6.53" pos="69.51" lane="2"/>
		<vehicle id="veh82" x="250.97" y="602.64" angle="255.74" type="car" speed="6.08" pos="6.68" lane="2"/>
		<vehicle id="veh83" x="272.14" y="224.04" angle="125.82" type="car" speed="6.59" pos="0.92" lane="1"/>
		<vehicle id="veh84" x="981.45" y="687.37" angle="334.72" type="car" speed="11.54" pos="27.58" lane="1"/>
		<vehicle id="veh85" x="373.01" y="265.51" angle="249.22" type="car" speed="6.38" pos="59.30" lane="2"/>
		<vehicle id="veh86" x="292.61" y="991.13" angle="295.29" type="car" speed="10.11" pos="85.16" lane="2"/>
		<vehicle id="veh87" x="529.59" y="414.99" angle="73.30" type="car" speed="8.57" pos="71.65" lane="1"/>
		<vehicle id="veh88" x="152.62" y="186.92" angle="56.31" type="car" speed="6.63" pos="7.26" lane="2"/>
		<vehicle id="veh89" x="923.55" y="835.99" angle="123.60" type="car" speed="12.12" pos="17.73" lane="3"/>
		<vehicle id="veh90" x="962.31" y="371.54" angle="319.04" type="bus" speed="12.51" pos="79.84" lane="1"/>
		<vehicle id="veh91" x="367.76" y="825.88" angle="250.30" type="car" speed="11.04" pos="7.70" lane="2"/>
		<vehicle id="veh92" x="90.08" y="585.91" angle="125.67" type="car" speed="8.64" pos="34.97" lane="2"/>
		<vehicle id="veh93" x="312.05" y="590.38" angle="230.36" type="car" speed="11.79" pos="67.89" lane="3"/>
		<vehicle id="veh94" x="144.44" y="577.68" angle="23.93" type="car" speed="5.55" pos="28.42" lane="3"/>
		<vehicle id="veh95" x="174.85" y="983.06" angle="29.86" type="car" speed="9.41" pos="52.30" lane="2"/>
		<vehicle id="veh96" x="490.90" y="201.36" angle="190.55" type="car" speed="11.45" pos="45.74" lane="1"/>
		<vehicle id="veh97" x="231.23" y="841.79" angle="15.67" type="car" speed="5.58" pos="32.99" lane="1"/>
		<vehicle id="veh98" x="933.21" y="338.76" angle="9.52" type="car" speed="7.02" pos="12.03" lane="3"/>
		<vehicle id="veh99" x="795.19" y="897.47" angle="268.89" type="car" speed="12.75" pos="14.30" lane="2"/>
		<vehicle id="veh100" x="505.80" y="940.54" angle="312.44" type="bus" speed="14.36" pos="26.47" lane="2"/>
	</timestep>
	<timestep time="1.00">
		<vehicle id="veh1" x="596.14" y="333.18" angle="328.47" type="car" speed="6.68" pos="14.83" lane="3"/>
		<vehicle id="veh2" x="132.08" y="530.39" angle="25.94" type="car" speed="11.30" pos="93.45" lane="1"/>
		<vehicle id="veh3" x="671.21" y="310.30" angle="238.44" type="car" speed="5.28" pos="23.53" lane="1"/>
		<vehicle id="veh4" x="162.10" y="993.24" angle="123.59" type="car" speed="9.33" pos="33.23" lane="3"/>
		<vehicle id="veh5" x="232.53" y="211.49" angle="219.59" type="car" speed="12.12" pos="60.16" lane="3"/>
		<vehicle id="veh6" x="404.62" y="957.42" angle="45.00" type="car" speed="9.03" pos="37.62" lane="2"/>
		<vehicle id="veh7" x="724.71" y="575.92" angle="150.63" type="car" speed="5.04" pos="21.13" lane="3"/>
		<vehicle id="veh8" x="826.89" y="598.50" angle="188.50" type="car" speed="10.67" pos="61.91" lane="1"/>
		<vehicle id="veh9" x="571.55" y="546.03" angle="6.55" type="car" speed="13.50" pos="3.70" lane="3"/>
		<vehicle id="veh10" x="752.45" y="874.25" angle="102.27" type="bus" speed="5.28" pos="71.52" lane="3"/>
		<vehicle id="veh11" x="916.70" y="800.76" angle="321.13" type="car" speed="12.65" pos="36.70" lane="1"/>
		<vehicle id="veh12" x="540.83" y="994.11" angle="115.37" type="car" speed="7.62" pos="19.33" lane="2"/>
		<vehicle id="veh13" x="582.33" y="979.06" angle="272.96" type="car" speed="7.36" pos="2.09" lane="1"/>
		<vehicle id="veh14" x="718.02" y="961.40" angle="34.55" type="car" speed="5.92" pos="9.47" lane="1"/>
		<vehicle id="veh15" x="557.98" y="970.26" angle="151.02" type="car" speed="7.77" pos="65.37" lane="3"/>
		<vehicle id="veh16" x="257.05" y="167.84" angle="75.17" type="car" speed="14.51" pos="76.74" lane="3"/>
		<vehicle id="veh17" x="371.53" y="500.50" angle="326.44" type="car" speed="8.32" pos="31.90" lane="1"/>
		<vehicle id="veh18" x="892.20" y="688.69" angle="291.27" type="car" speed="6.95" pos="95.83" lane="2"/>
		<vehicle id="veh19" x="207.82" y="516.75" angle="208.01" type="car" speed="9.52" pos="59.98" lane="2"/>
		<vehicle id="veh20" x="334.97" y="728.56" angle="209.00" type="bus" speed="11.05" pos="17.21" lane="2"/>
		<vehicle id="veh21" x="350.94" y="254.35" angle="153.05" type="car" speed="13.56" pos="88.27" lane="2"/>
		<vehicle id="veh22" x="455.92" y="909.32" angle="53.29" type="car" speed="6.38" pos="33.33" lane="2"/>
		<vehicle id="veh23" x="775.49" y="466.76" angle="194.84" type="car" speed="13.01" pos="72.25" lane="1"/>
		<vehicle id="veh24" x="398.92" y="385.61" angle="267.38" type="car" speed="7.94" pos="40.95" lane="1"/>
		<vehicle id="veh25" x="391.54" y="367.89" angle="77.51" type="car" speed="5.54" pos="62.24" lane="2"/>
		<vehicle id="veh26" x="63.74" y="640.92" angle="208.92" type="car" speed="9.37" pos="63.45" lane="1"/>
		<vehicle id="veh27" x="933.49" y="776.90" angle="145.37" type="car" speed="14.40" pos="38.40" lane="3"/>
		<vehicle id="veh28" x="919.66" y="487.30" angle="58.55" type="car" speed="5.14" pos="3.83" lane="2"/>
		<vehicle id="veh29" x="742.61" y="718.31" angle="116.49" type="car" speed="9.13" pos="68.37" lane="2"/>
		<vehicle id="veh30" x="432.84" y="693.96" angle="90.86" type="bus" speed="14.55" pos="18.15" lane="3"/>
		<vehicle id="veh31" x="469.51" y="164.81" angle="172.66" type="car" speed="11.91" pos="22.82" lane="2"/>
		<vehicle id="veh32" x="132.96" y="149.77" angle="153.33" type="car" speed="9.77" pos="5.64" lane="1"/>
		<vehicle id="veh33" x="585.13" y="765.42" angle="149.24" type="car" speed="6.90" pos="79.95" lane="2"/>
		<vehicle id="veh34" x="293.85" y="757.32" angle="106.35" type="car" speed="5.66" pos="90.71" lane="3"/>
		<vehicle id="veh35" x="303.40" y="558.88" angle="107.18" type="car" speed="9.09" pos="50.37" lane="1"/>
		<vehicle id="veh36" x="357.93" y="67.01" angle="324.99" type="car" speed="7.19" pos="2.52" lane="2"/>
		<vehicle id="veh37" x="589.10" y="117.78" angle="325.24" type="car" speed="10.48" pos="68.12" lane="3"/>
		<vehicle id="veh38" x="406.80" y="554.05" angle="127.54" type="car" speed="13.84" pos="34.91" lane="2"/>
		<vehicle id="veh39" x="127.52" y="5.81" angle="15.56" type="car" speed="8.73" pos="48.67" lane="3"/>
		<vehicle id="veh40" x="680.29" y="897.56" angle="337.50" type="bus" speed="5.56" pos="26.57" lane="2"/>
		<vehicle id="veh41" x="140.89" y="904.66" angle="97.73" type="car" speed="12.99" pos="20.03" lane="3"/>
		<vehicle id="veh42" x="291.74" y="914.36" angle="47.73" type="car" speed="9.42" pos="44.69" lane="1"/>
		<vehicle id="veh43" x="132.19" y="117.97" angle="71.53" type="car" speed="9.22" pos="61.72" lane="1"/>
		<vehicle id="veh44" x="475.16" y="381.65" angle="335.35" type="car" speed="7.03" pos="52.61" lane="2"/>
		<vehicle id="veh45" x="391.63" y="259.25" angle="152.05" type="car" speed="6.90" pos="43.86" lane="3"/>
		<vehicle id="veh46" x="568.10" y="45.44" angle="59.52" type="car" speed="8.93" pos="94.90" lane="2"/>
		<vehicle id="veh47" x="441.47" y="762.44" angle="265.58" type="car" speed="13.80" pos="98.70" lane="1"/>
		<vehicle id="veh48" x="450.46" y="179.01" angle="107.91" type="car" speed="9.81" pos="1.81" lane="3"/>
		<vehicle id="veh49" x="573.69" y="433.10" angle="345.93" type="car" speed="6.03" pos="16.76" lane="2"/>
		<vehicle id="veh50" x="48.03" y="916.21" angle="281.88" type="bus" speed="6.30" pos="33.05" lane="2"/>
		<vehicle id="veh51" x="621.37" y="372.16" angle="298.29" type="car" speed="12.21" pos="78.23" lane="1"/>
		<vehicle id="veh52" x="172.99" y="53.69" angle="156.55" type="car" speed="9.69" pos="77.63" lane="2"/>
		<vehicle id="veh53" x="235.26" y="64.87" angle="50.00" type="car" speed="11.47" pos="1.16" lane="2"/>
		<vehicle id="veh54" x="555.49" y="698.88" angle="197.92" type="car" speed="8.32" pos="69.86" lane="2"/>
		<vehicle id="veh55" x="140.42" y="882.74" angle="344.16" type="car" speed="12.33" pos="37.51" lane="3"/>
		<vehicle id="veh56" x="353.53" y="763.59" angle="58.62" type="car" speed="14.34" pos="36.20" lane="1"/>
		<vehicle id="veh57" x="894.29" y="456.60" angle="18.99" type="car" speed="9.85" pos="88.22" lane="3"/>
		<vehicle id="veh58" x="833.71" y="891.94" angle="254.22" type="car" speed="14.48" pos="95.23" lane="3"/>
		<vehicle id="veh59" x="775.10" y="610.87" angle="249.50" type="car" speed="13.65" pos="58.27" lane="2"/>
		<vehicle id="veh60" x="531.66" y="698.91" angle="95.28" type="bus" speed="13.72" pos="11.20" lane="1"/>
		<vehicle id="veh61" x="616.04" y="485.80" angle="191.42" type="car" speed="11.98" pos="98.04" lane="3"/>
		<vehicle id="veh62" x="520.22" y="685.30" angle="317.59" type="car" speed="12.98" pos="27.11" lane="1"/>
		<vehicle id="veh63" x="95.17" y="32.39" angle="235.82" type="car" speed="5.17" pos="82.71" lane="3"/>
		<vehicle id="veh64" x="869.01" y="37.56" angle="29.20" type="car" speed="5.70" pos="74.07" lane="2"/>
		<vehicle id="veh65" x="736.31" y="128.07" angle="6.51" type="car" speed="6.71" pos="88.30" lane="3"/>
		<vehicle id="veh66" x="208.69" y="613.98" angle="5.36" type="car" speed="10.78" pos="95.55" lane="2"/>
		<vehicle id="veh67" x="573.43" y="513.07" angle="236.29" type="car" speed="8.00" pos="7.30" lane="3"/>
		<vehicle id="veh68" x="15.14" y="113.44" angle="109.86" type="car" speed="14.72" pos="53.45" lane="1"/>
		<vehicle id="veh69" x="692.25" y="515.46" angle="7.06" type="car" speed="8.36" pos="71.53" lane="3"/>
		<vehicle id="veh70" x="966.74" y="616.97" angle="172.41" type="bus" speed="10.84" pos="30.79" lane="3"/>
		<vehicle id="veh71" x="335.55" y="761.23" angle="357.99" type="car" speed="12.95" pos="62.42" lane="3"/>
		<vehicle id="veh72" x="835.99" y="900.46" angle="220.47" type="car" speed="7.61" pos="28.58" lane="3"/>
		<vehicle id="veh73" x="648.45" y="208.16" angle="221.61" type="car" speed="9.70" pos="71.44" lane="2"/>
		<vehicle id="veh74" x="44.35" y="887.24" angle="127.56" type="car" speed="10.04" pos="59.29" lane="3"/>
		<vehicle id="veh75" x="348.98" y="456.28" angle="100.65" type="car" speed="11.62" pos="45.51" lane="1"/>
		<vehicle id="veh76" x="326.02" y="904.03" angle="263.87" type="car" speed="13.96" pos="78.33" lane="3"/>
		<vehicle id="veh77" x="203.31" y="376.57" angle="351.21" type="car" speed="9.39" pos="47.85" lane="3"/>
		<vehicle id="veh78" x="359.66" y="82.74" angle="31.74" type="car" speed="7.54" pos="78.53" lane="3"/>
		<vehicle id="veh79" x="414.20" y="193.89" angle="274.42" type="car" speed="10.11" pos="43.06" lane="3"/>
		<vehicle id="veh80" x="718.37" y="561.49" angle="15.55" type="bus" speed="5.30" pos="12.15" lane="1"/>
		<vehicle id="veh81" x="699.06" y="90.05" angle="123.43" type="car" speed="6.03" pos="62.19" lane="1"/>
		<vehicle id="veh82" x="126.29" y="832.19" angle="156.10" type="car" speed="6.61" pos="24.18" lane="1"/>
		<vehicle id="veh83" x="806.65" y="73.30" angle="321.98" type="car" speed="12.30" pos="78.66" lane="1"/>
		<vehicle id="veh84" x="776.73" y="664.36" angle="29.01" type="car" speed="7.22" pos="97.01" lane="3"/>
		<vehicle id="veh85" x="411.16" y="608.31" angle="309.49" type="car" speed="13.57" pos="45.72" lane="1"/>
		<vehicle id="veh86" x="516.00" y="604.37" angle="74.81" type="car" speed="9.51" pos="77.72" lane="2"/>
		<vehicle id="veh87" x="706.28" y="834.01" angle="175.92" type="car" speed="13.28" pos="59.86" lane="3"/>
		<vehicle id="veh88" x="58.36" y="768.10" angle="235.87" type="car" speed="7.09" pos="37.69" lane="3"/>
		<vehicle id="veh89" x="212.18" y="911.58" angle="168.76" type="car" speed="9.92" pos="39.84" lane="2"/>
		<vehicle id="veh90" x="399.08" y="519.65" angle="57.28" type="bus" speed="12.61" pos="23.68" lane="3"/>
		<vehicle id="veh91" x="303.16" y="336.58" angle="267.24" type="car" speed="12.48" pos="27.85" lane="3"/>
		<vehicle id="veh92" x="653.00" y="365.78" angle="146.38" type="car" speed="5.23" pos="6.90" lane="3"/>
		<vehicle id="veh93" x="59.71" y="734.37" angle="229.74" type="car" speed="14.31" pos="84.18" lane="3"/>
		<vehicle id="veh94" x="341.79" y="760.42" angle="293.60" type="car" speed="14.77" pos="55.79" lane="1"/>
		<vehicle id="veh95" x="803.85" y="811.55" angle="101.33" type="car" speed="7.86" pos="94.83" lane="2"/>
		<vehicle id="veh96" x="78.43" y="156.65" angle="251.70" type="car" speed="8.39" pos="65.84" lane="3"/>
		<vehicle id="veh97" x="740.44" y="63.02" angle="339.36" type="car" speed="6.59" pos="58.06" lane="1"/>
		<vehicle id="veh98" x="259.14" y="688.55" angle="183.89" type="car" speed="6.79" pos="10.53" lane="2"/>
		<vehicle id="veh99" x="244.44" y="345.41" angle="136.97" type="car" speed="12.21" pos="57.16" lane="3"/>
		<vehicle id="veh100" x="758.53" y="879.38" angle="207.00" type="bus" speed="11.44" pos="0.61" lane="1"/>
	</timestep>
	<timestep time="2.00">
		<vehicle id="veh1" x="22.75" y="404.11" angle="230.20" type="car" speed="5.57" pos="97.73" lane="1"/>
		<vehicle id="veh2" x="151.35" y="115.39" angle="107.20" type="car" speed="6.28" pos="76.64" lane="1"/>
		<vehicle id="veh3" x="117.92" y="376.26" angle="162.78" type="car" speed="10.95" pos="12.32" lane="2"/>
		<vehicle id="veh4" x="431.43" y="561.79" angle="87.90" type="car" speed="12.99" pos="41.28" lane="2"/>
		<vehicle id="veh5" x="541.45" y="192.19" angle="46.86" type="car" speed="6.79" pos="96.65" lane="1"/>
		<vehicle id="veh6" x="619.30" y="866.15" angle="323.03" type="car" speed="5.11" pos="50.27" lane="2"/>
		<vehicle id="veh7" x="597.99" y="288.61" angle="38.15" type="car" speed="5.81" pos="23.98" lane="1"/>
		<vehicle id="veh8" x="217.32" y="752.40" angle="20.10" type="car" speed="7.67" pos="29.75" lane="1"/>
		<vehicle id="veh9" x="832.15" y="187.09" angle="353.37" type="car" speed="13.06" pos="78.76" lane="3"/>
		<vehicle id="veh10" x="378.18" y="818.02" angle="234.99" type="bus" speed="7.23" pos="62.89" lane="2"/>
		<vehicle id="veh11" x="493.74" y="497.44" angle="144.95" type="car" speed="14.99" pos="18.04" lane="3"/>
		<vehicle id="veh12" x="135.61" y="471.37" angle="147.78" type="car" speed="10.06" pos="68.83" lane="1"/>
		<vehicle id="veh13" x="854.54" y="997.77" angle="240.07" type="car" speed="11.11" pos="33.12" lane="2"/>
		<vehicle id="veh14" x="415.90" y="287.45" angle="207.18" type="car" speed="5.36" pos="70.54" lane="3"/>
		<vehicle id="veh15" x="737.56" y="205.77" angle="328.74" type="car" speed="10.14" pos="24.03" lane="2"/>
		<vehicle id="veh16" x="209.20" y="790.66" angle="258.23" type="car" speed="6.38" pos="91.99" lane="2"/>
		<vehicle id="veh17" x="108.20" y="784.63" angle="46.19" type="car" speed="6.81" pos="16.22" lane="1"/>
		<vehicle id="veh18" x="438.76" y="604.34" angle="265.55" type="car" speed="6.77" pos="88.41" lane="1"/>
		<vehicle id="veh19" x="442.43" y="190.83" angle="30.86" type="car" speed="6.09" pos="32.54" lane="3"/>
		<vehicle id="veh20" x="934.24" y="614.16" angle="57.08" type="bus" speed="5.97" pos="35.95" lane="2"/>
		<vehicle id="veh21" x="821.63" y="530.18" angle="337.71" type="car" speed="13.16" pos="83.06" lane="3"/>
		<vehicle id="veh22" x="490.41" y="799.57" angle="307.97" type="car" speed="12.40" pos="33.03" lane="3"/>
		<vehicle id="veh23" x="279.87" y="489.57" angle="83.30" type="car" speed="11.87" pos="91.58" lane="1"/>
		<vehicle id="veh24" x="911.71" y="313.23" angle="218.79" type="car" speed="11.21" pos="73.23" lane="2"/>
		<vehicle id="veh25" x="355.58" y="599.85" angle="41.17" type="car" speed="13.00" pos="62.57" lane="3"/>
		<vehicle id="veh26" x="294.78" y="687.44" angle="351.26" type="car" speed="10.96" pos="66.45" lane="1"/>
		<vehicle id="veh27" x="144.72" y="403.44" angle="147.29" type="car" speed="13.37" pos="94.53" lane="2"/>
		<vehicle id="veh28" x="612.97" y="564.46" angle="217.65" type="car" speed="14.90" pos="1.25" lane="1"/>
		<vehicle id="veh29" x="871.45" y="768.94" angle="331.54" type="car" speed="5.89" pos="45.37" lane="2"/>
		<vehicle id="veh30" x="519.22" y="612.79" angle="232.62" type="bus" speed="10.77" pos="97.89" lane="2"/>
		<vehicle id="veh31" x="778.54" y="588.29" angle="282.03" type="car" speed="13.17" pos="12.15" lane="1"/>
		<vehicle id="veh32" x="781.30" y="7.60" angle="154.39" type="car" speed="6.22" pos="65.13" lane="3"/>
		<vehicle id="veh33" x="942.13" y="743.26" angle="327.42" type="car" speed="12.09" pos="88.81" lane="2"/>
		<vehicle id="veh34" x="840.40" y="154.21" angle="278.86" type="car" speed="11.33" pos="20.29" lane="1"/>
		<vehicle id="veh35" x="576.61" y="54.78" angle="109.83" type="car" speed="14.14" pos="61.03" lane="2"/>
		<vehicle id="veh36" x="23.10" y="906.71" angle="296.31" type="car" speed="13.79" pos="62.64" lane="1"/>
		<vehicle id="veh37" x="801.88" y="131.38" angle="72.37" type="car" speed="10.77" pos="33.71" lane="3"/>
		<vehicle id="veh38" x="438.22" y="92.50" angle="141.53" type="car" speed="8.77" pos="70.17" lane="1"/>
		<vehicle id="veh39" x="620.37" y="972.49" angle="284.89" type="car" speed="6.79" pos="64.19" lane="3"/>
		<vehicle id="veh40" x="465.45" y="230.32" angle="157.85" type="bus" speed="12.75" pos="30.45" lane="3"/>
		<vehicle id="veh41" x="566.68" y="743.12" angle="25.85" type="car" speed="9.22" pos="79.58" lane="3"/>
		<vehicle id="veh42" x="398.73" y="573.15" angle="17.84" type="car" speed="7.16" pos="39.22" lane="3"/>
		<vehicle id="veh43" x="994.60" y="101.86" angle="291.51" type="car" speed="10.98" pos="40.25" lane="2"/>
		<vehicle id="veh44" x="17.59" y="783.29" angle="326.06" type="car" speed="12.65" pos="27.99" lane="1"/>
		<vehicle id="veh45" x="876.95" y="385.06" angle="143.67" type="car" speed="5.61" pos="78.42" lane="2"/>
		<vehicle id="veh46" x="791.40" y="978.08" angle="239.96" type="car" speed="6.49" pos="94.04" lane="3"/>
		<vehicle id="veh47" x="686.90" y="466.65" angle="70.98" type="car" speed="14.86" pos="38.99" lane="1"/>
		<vehicle id="veh48" x="308.33" y="165.10" angle="262.56" type="car" speed="9.05" pos="60.48" lane="1"/>
		<vehicle id="veh49" x="908.40" y="214.04" angle="218.53" type="car" speed="9.98" pos="58.84" lane="2"/>
		<vehicle id="veh50" x="844.59" y="427.53" angle="103.27" type="bus" speed="12.48" pos="18.87" lane="2"/>
		<vehicle id="veh51" x="808.15" y="268.74" angle="65.95" type="car" speed="6.86" pos="90.05" lane="2"/>
		<vehicle id="veh52" x="840.03" y="779.92" angle="27.20" type="car" speed="8.38" pos="49.69" lane="3"/>
		<vehicle id="veh53" x="251.69" y="270.32" angle="0.50" type="car" speed="5.70" pos="31.76" lane="2"/>
		<vehicle id="veh54" x="513.16" y="896.12" angle="110.02" type="car" speed="7.84" pos="88.86" lane="1"/>
		<vehicle id="veh55" x="660.16" y="687.56" angle="275.31" type="car" speed="8.77" pos="34.41" lane="1"/>
		<vehicle id="veh56" x="975.47" y="483.87" angle="176.59" type="car" speed="9.44" pos="76.51" lane="2"/>
		<vehicle id="veh57" x="855.21" y="902.37" angle="23.03" type="car" speed="14.61" pos="4.33" lane="1"/>
		<vehicle id="veh58" x="609.96" y="634.51" angle="147.16" type="car" speed="13.79" pos="25.29" lane="1"/>
		<vehicle id="veh59" x="355.65" y="789.56" angle="107.60" type="car" speed="14.36" pos="99.27" lane="2"/>
		<vehicle id="veh60" x="988.09" y="215.23" angle="183.37" type="bus" speed="9.28" pos="65.71" lane="2"/>
		<vehicle id="veh61" x="590.27" y="759.63" angle="261.47" type="car" speed="11.55" pos="9.51" lane="1"/>
		<vehicle id="veh62" x="535.23" y="450.85" angle="337.24" type="car" speed="14.41" pos="63.88" lane="3"/>
		<vehicle id="veh63" x="934.62" y="841.82" angle="240.62" type="car" speed="5.83" pos="47.15" lane="3"/>
		<vehicle id="veh64" x="648.66" y="477.77" angle="76.88" type="car" speed="13.93" pos="28.03" lane="3"/>
		<vehicle id="veh65" x="431.58" y="791.32" angle="33.63" type="car" speed="14.63" pos="55.68" lane="3"/>
		<vehicle id="veh66" x="328.47" y="241.44" angle="153.63" type="car" speed="10.51" pos="86.40" lane="2"/>
		<vehicle id="veh67" x="352.35" y="156.24" angle="80.93" type="car" speed="8.75" pos="5.08" lane="3"/>
		<vehicle id="veh68" x="567.86" y="481.27" angle="228.03" type="car" speed="6.78" pos="58.94" lane="2"/>
		<vehicle id="veh69" x="214.50" y="188.11" angle="249.55" type="car" speed="8.86" pos="0.82" lane="3"/>
		<vehicle id="veh70" x="761.29" y="626.23" angle="74.70" type="bus" speed="13.35" pos="78.55" lane="2"/>
		<vehicle id="veh71" x="626.82" y="202.88" angle="63.72" type="car" speed="14.69" pos="35.33" lane="3"/>
		<vehicle id="veh72" x="51.56" y="625.19" angle="157.86" type="car" speed="13.33" pos="52.84" lane="2"/>
		<vehicle id="veh73" x="26.74" y="658.60" angle="122.53" type="car" speed="6.46" pos="87.70" lane="1"/>
		<vehicle id="veh74" x="805.77" y="710.78" angle="335.01" type="car" speed="10.70" pos="68.30" lane="2"/>
		<vehicle id="veh75" x="473.49" y="510.25" angle="91.74" type="car" speed="7.61" pos="65.69" lane="3"/>
		<vehicle id="veh76" x="32.61" y="588.23" angle="287.38" type="car" speed="5.80" pos="58.90" lane="2"/>
		<vehicle id="veh77" x="5.17" y="132.95" angle="323.87" type="car" speed="9.65" pos="30.34" lane="3"/>
		<vehicle id="veh78" x="634.15" y="470.77" angle="115.29" type="car" speed="14.52" pos="72.57" lane="2"/>
		<vehicle id="veh79" x="920.43" y="67.24" angle="130.81" type="car" speed="6.04" pos="74.12" lane="1"/>
		<vehicle id="veh80" x="342.96" y="117.56" angle="235.62" type="bus" speed="12.14" pos="25.81" lane="3"/>
		<vehicle id="veh81" x="602.32" y="475.40" angle="135.78" type="car" speed="9.03" pos="93.98" lane="1"/>
		<vehicle id="veh82" x="437.19" y="400.79" angle="29.27" type="car" speed="8.80" pos="82.59" lane="1"/>